<?xml version="1.0"?>
<VTKFile type="UnstructuredGrid" version="2.2">
  <UnstructuredGrid>
    <Piece NumberOfPoints="121" NumberOfCells="100">
      <Points>
        <DataArray type="Float64" NumberOfComponents="3" format="ascii">5.551115123125783e-18 5.551115123125783e-18 0 5.551115123125783e-18 0.1 0 0.1 5.551115123125783e-18 0 0.1 0.1 0 5.551115123125783e-18 0.2 0 0.1 0.2 0 0.2 5.551115123125783e-18 0 0.2 0.1 0 5.551115123125783e-18 0.3 0 0.1 0.3 0 0.2 0.2 0 0.3 5.551115123125783e-18 0 0.3 0.1 0 5.551115123125783e-18 0.4 0 0.1 0.4 0 0.2 0.3 0 0.3 0.2 0 0.4 5.551115123125783e-18 0 0.4 0.1 0 5.551115123125783e-18 0.5 0 0.1 0.5 0 0.2 0.4 0 0.3 0.3 0 0.4 0.2 0 0.5 5.551115123125783e-18 0 0.5 0.1 0 5.551115123125783e-18 0.6000000000000001 0 0.1 0.6000000000000001 0 0.2 0.5 0 0.3 0.4 0 0.4 0.3 0 0.5 0.2 0 0.6000000000000001 5.551115123125783e-18 0 0.6000000000000001 0.1 0 5.551115123125783e-18 0.7000000000000001 0 0.1 0.7000000000000001 0 0.2 0.6000000000000001 0 0.3 0.5 0 0.4 0.4 0 0.5 0.3 0 0.6000000000000001 0.2 0 0.7000000000000001 5.551115123125783e-18 0 0.7000000000000001 0.1 0 5.551115123125783e-18 0.8 0 0.1 0.8 0 0.2 0.7000000000000001 0 0.3 0.6000000000000001 0 0.4 0.5 0 0.5 0.4 0 0.6000000000000001 0.3 0 0.7000000000000001 0.2 0 0.8 5.551115123125783e-18 0 0.8 0.1 0 5.551115123125783e-18 0.9000000000000001 0 0.1 0.9000000000000001 0 0.2 0.8 0 0.3 0.7000000000000001 0 0.4 0.6000000000000001 0 0.5 0.5 0 0.6000000000000001 0.4 0 0.7000000000000001 0.3 0 0.8 0.2 0 0.9000000000000001 5.551115123125783e-18 0 0.9000000000000001 0.1 0 -5.551115123125783e-18 1 0 0.09999999999999999 1 0 0.2 0.9000000000000001 0 0.3 0.8 0 0.4 0.7000000000000001 0 0.5 0.6000000000000001 0 0.6000000000000001 0.5 0 0.7000000000000001 0.4 0 0.8 0.3 0 0.9000000000000001 0.2 0 1 -5.551115123125783e-18 0 1 0.09999999999999999 0 0.2 1 0 0.3 0.9000000000000001 0 0.4 0.8 0 0.5 0.7000000000000001 0 0.6000000000000001 0.6000000000000001 0 0.7000000000000001 0.5 0 0.8 0.4 0 0.9000000000000001 0.3 0 1 0.2 0 0.3 1 0 0.4 0.9000000000000001 0 0.5 0.8 0 0.6000000000000001 0.7000000000000001 0 0.7000000000000001 0.6000000000000001 0 0.8 0.5 0 0.9000000000000001 0.4 0 1 0.3 0 0.4 1 0 0.5 0.9000000000000001 0 0.6000000000000001 0.8 0 0.7000000000000001 0.7000000000000001 0 0.8 0.6000000000000001 0 0.9000000000000001 0.5 0 1 0.4 0 0.4999999999999999 1 0 0.6000000000000001 0.9000000000000001 0 0.7000000000000001 0.8 0 0.8 0.7000000000000001 0 0.9000000000000001 0.6000000000000001 0 1 0.4999999999999999 0 0.6000000000000001 1 0 0.7000000000000001 0.9000000000000001 0 0.8 0.8 0 0.9000000000000001 0.7000000000000001 0 1 0.6000000000000001 0 0.7000000000000001 1 0 0.8 0.9000000000000001 0 0.9000000000000001 0.8 0 1 0.7000000000000001 0 0.8 1 0 0.9000000000000001 0.9000000000000001 0 1 0.8 0 0.8999999999999999 1 0 1 0.8999999999999999 0 1 1 0 </DataArray>
      </Points>
      <Cells>
        <DataArray type="Int32" Name="connectivity" format="ascii">0 1 3 2 1 4 5 3 2 3 7 6 4 8 9 5 3 5 10 7 6 7 12 11 8 13 14 9 5 9 15 10 7 10 16 12 11 12 18 17 13 19 20 14 9 14 21 15 10 15 22 16 12 16 23 18 17 18 25 24 19 26 27 20 14 20 28 21 15 21 29 22 16 22 30 23 18 23 31 25 24 25 33 32 26 34 35 27 20 27 36 28 21 28 37 29 22 29 38 30 23 30 39 31 25 31 40 33 32 33 42 41 34 43 44 35 27 35 45 36 28 36 46 37 29 37 47 38 30 38 48 39 31 39 49 40 33 40 50 42 41 42 52 51 43 53 54 44 35 44 55 45 36 45 56 46 37 46 57 47 38 47 58 48 39 48 59 49 40 49 60 50 42 50 61 52 51 52 63 62 53 64 65 54 44 54 66 55 45 55 67 56 46 56 68 57 47 57 69 58 48 58 70 59 49 59 71 60 50 60 72 61 52 61 73 63 62 63 75 74 54 65 76 66 55 66 77 67 56 67 78 68 57 68 79 69 58 69 80 70 59 70 81 71 60 71 82 72 61 72 83 73 63 73 84 75 66 76 85 77 67 77 86 78 68 78 87 79 69 79 88 80 70 80 89 81 71 81 90 82 72 82 91 83 73 83 92 84 77 85 93 86 78 86 94 87 79 87 95 88 80 88 96 89 81 89 97 90 82 90 98 91 83 91 99 92 86 93 100 94 87 94 101 95 88 95 102 96 89 96 103 97 90 97 104 98 91 98 105 99 94 100 106 101 95 101 107 102 96 102 108 103 97 103 109 104 98 104 110 105 101 106 111 107 102 107 112 108 103 108 113 109 104 109 114 110 107 111 115 112 108 112 116 113 109 113 117 114 112 115 118 116 113 116 119 117 116 118 120 119 </DataArray>
        <DataArray type="Int32" Name="offsets" format="ascii">4 8 12 16 20 24 28 32 36 40 44 48 52 56 60 64 68 72 76 80 84 88 92 96 100 104 108 112 116 120 124 128 132 136 140 144 148 152 156 160 164 168 172 176 180 184 188 192 196 200 204 208 212 216 220 224 228 232 236 240 244 248 252 256 260 264 268 272 276 280 284 288 292 296 300 304 308 312 316 320 324 328 332 336 340 344 348 352 356 360 364 368 372 376 380 384 388 392 396 400 </DataArray>
        <DataArray type="Int8" Name="types" format="ascii">70 70 70 70 70 70 70 70 70 70 70 70 70 70 70 70 70 70 70 70 70 70 70 70 70 70 70 70 70 70 70 70 70 70 70 70 70 70 70 70 70 70 70 70 70 70 70 70 70 70 70 70 70 70 70 70 70 70 70 70 70 70 70 70 70 70 70 70 70 70 70 70 70 70 70 70 70 70 70 70 70 70 70 70 70 70 70 70 70 70 70 70 70 70 70 70 70 70 70 70 </DataArray>
      </Cells>
      <CellData>
        <DataArray type="UInt8" Name="vtkGhostType" format="ascii" RangeMin="0" RangeMax="1">0 0 0 0 0 0 0 0 0 0 0 0 0 0 0 0 0 0 0 0 0 0 0 0 0 0 0 0 0 0 0 0 0 0 0 0 0 0 0 0 0 0 0 0 0 0 0 0 0 0 0 0 0 0 0 0 0 0 0 0 0 0 0 0 0 0 0 0 0 0 0 0 0 0 0 0 0 0 0 0 0 0 0 0 0 0 0 0 0 0 0 0 0 0 0 0 0 0 0 0 </DataArray>
        <DataArray type="Int64" IdType="1" Name="vtkOriginalCellIds" format="ascii" RangeMin="0" RangeMax="99">0 1 2 3 4 5 6 7 8 9 10 11 12 13 14 15 16 17 18 19 20 21 22 23 24 25 26 27 28 29 30 31 32 33 34 35 36 37 38 39 40 41 42 43 44 45 46 47 48 49 50 51 52 53 54 55 56 57 58 59 60 61 62 63 64 65 66 67 68 69 70 71 72 73 74 75 76 77 78 79 80 81 82 83 84 85 86 87 88 89 90 91 92 93 94 95 96 97 98 99 </DataArray>
      </CellData>
      <PointData Scalars="f">
        <DataArray type="Int64" IdType="1" Name="vtkOriginalPointIds" format="ascii" RangeMin="0" RangeMax="120">0 1 2 3 4 5 6 7 8 9 10 11 12 13 14 15 16 17 18 19 20 21 22 23 24 25 26 27 28 29 30 31 32 33 34 35 36 37 38 39 40 41 42 43 44 45 46 47 48 49 50 51 52 53 54 55 56 57 58 59 60 61 62 63 64 65 66 67 68 69 70 71 72 73 74 75 76 77 78 79 80 81 82 83 84 85 86 87 88 89 90 91 92 93 94 95 96 97 98 99 100 101 102 103 104 105 106 107 108 109 110 111 112 113 114 115 116 117 118 119 120 </DataArray>
        <DataArray type="UInt8" Name="vtkGhostType" format="ascii" RangeMin="0" RangeMax="0">0 0 0 0 0 0 0 0 0 0 0 0 0 0 0 0 0 0 0 0 0 0 0 0 0 0 0 0 0 0 0 0 0 0 0 0 0 0 0 0 0 0 0 0 0 0 0 0 0 0 0 0 0 0 0 0 0 0 0 0 0 0 0 0 0 0 0 0 0 0 0 0 0 0 0 0 0 0 0 0 0 0 0 0 0 0 0 0 0 0 0 0 0 0 0 0 0 0 0 0 0 0 0 0 0 0 0 0 0 0 0 0 0 0 0 0 0 0 0 0 0 </DataArray>
        <DataArray type="Float64" Name="Numeric" format="ascii">1 1.02 0.9783037081078759 0.9966959225703851 1.08 1.051705176216961 0.9797158687563448 0.9966609754829462 1.18 1.142807010045181 1.047181651998954 1.007035876687094 1.022836784574562 1.32 1.269044631895751 1.130295849638225 1.069812814951393 1.062479205673897 1.077548209475748 1.5 1.428867382709689 1.244228770611564 1.146638682511977 1.122259673570118 1.147464336650471 1.162281721976494 1.72 1.619789025468387 1.386158042161346 1.250948058874016 1.195080692358613 1.206215261721956 1.262479205673897 1.277548209475748 1.98 1.837594842041568 1.551718591540467 1.379070507056329 1.293301948092935 1.277663220990199 1.322259673570118 1.407035876687094 1.422836784574562 2.28 2.074133129714947 1.733973345294022 1.525597369134558 1.41280997856114 1.373805878156309 1.395080692358613 1.469812814951393 1.579715868756345 1.596660975482946 2.62 2.310323111965107 1.92114464431472 1.682698218457833 1.547801297474612 1.490398566234894 1.493301948092935 1.546638682511978 1.647181651998954 1.778303708107876 1.796695922570385 3 2.459775826636174 2.090029094104158 1.839110941679699 1.690548972530714 1.621556203465472 1.612809978561141 1.650948058874017 1.730295849638225 1.851705176216962 2 2.02 2.21750220095086 1.981294471260426 1.831690585693879 1.759730564355948 1.747801297474612 1.77907050705633 1.844228770611565 1.942807010045182 2.08 2.096948426311329 1.961508201781837 1.896206599983709 1.890548972530714 1.925597369134559 1.986158042161346 2.069044631895751 2.18 2.07242167524693 2.022426715500859 2.031690585693879 2.082698218457834 2.151718591540467 2.228867382709689 2.32 2.131966198577869 2.161508201781838 2.239110941679699 2.333973345294023 2.419789025468388 2.5 2.272421675246931 2.381294471260427 2.521144644314721 2.637594842041568 2.72 2.496948426311331 2.690029094104159 2.874133129714948 2.98 2.817502200950862 3.110323111965108 3.28 3.259775826636175 3.62 4 </DataArray>
        <DataArray type="Float64" Name="Exact" format="ascii">1 1.02 1.01 1.03 1.08 1.09 1.04 1.06 1.18 1.19 1.12 1.09 1.11 1.32 1.33 1.22 1.17 1.16 1.18 1.5 1.51 1.36 1.27 1.24 1.25 1.27 1.72 1.73 1.54 1.41 1.34 1.33 1.36 1.38 1.98 1.99 1.76 1.59 1.48 1.43 1.44 1.49 1.51 2.28 2.29 2.02 1.81 1.66 1.57 1.54 1.57 1.64 1.66 2.62 2.63 2.32 2.07 1.88 1.75 1.68 1.67 1.72 1.81 1.83 3 3.01 2.66 2.37 2.140000000000001 1.97 1.86 1.81 1.82 1.89 2 2.02 3.04 2.71 2.44 2.23 2.08 1.99 1.96 1.99 2.08 3.09 2.78 2.53 2.34 2.21 2.14 2.13 2.18 3.16 2.87 2.640000000000001 2.470000000000001 2.36 2.31 2.32 3.25 2.98 2.77 2.62 2.53 2.5 3.36 3.11 2.92 2.79 2.72 3.49 3.26 3.09 2.98 3.64 3.43 3.28 3.81 3.62 4 </DataArray>
        <DataArray type="Float64" Name="Error" format="ascii">0 0 -0.03169629189212408 -0.03330407742961494 0 -0.03829482378303894 -0.06028413124365528 -0.06333902451705387 0 -0.04719298995481869 -0.07281834800104647 -0.08296412331290592 -0.08716321542543826 0 -0.0609553681042494 -0.08970415036177548 -0.1001871850486076 -0.09752079432610361 -0.1024517905242524 0 -0.08113261729031063 -0.1157712293884359 -0.123361317488023 -0.1177403264298826 -0.1025356633495287 -0.1077182780235062 0 -0.1102109745316133 -0.1538419578386545 -0.1590519411259841 -0.1449193076413877 -0.1237847382780444 -0.09752079432610339 -0.1024517905242519 0 -0.152405157958432 -0.2082814084595332 -0.2109294929436707 -0.1866980519070653 -0.1523367790098009 -0.1177403264298826 -0.08296412331290615 -0.0871632154254387 0 -0.2158668702850535 -0.2860266547059782 -0.2844026308654424 -0.24719002143886 -0.1961941218436907 -0.1449193076413868 -0.1001871850486076 -0.06028413124365528 -0.06333902451705398 0 -0.319676888034893 -0.3988553556852803 -0.3873017815421669 -0.3321987025253887 -0.2596014337651056 -0.1866980519070649 -0.1233613174880228 -0.07281834800104647 -0.0316962918921242 -0.03330407742961494 0 -0.550224173363826 -0.5699709058958424 -0.5308890583203014 -0.4494510274692862 -0.3484437965345282 -0.2471900214388587 -0.159051941125983 -0.08970415036177526 -0.0382948237830385 0 0 -0.8224977990491396 -0.7287055287395738 -0.6083094143061218 -0.470269435644052 -0.3321987025253883 -0.21092949294367 -0.1157712293884348 -0.0471929899548178 0 -0.9930515736886707 -0.8184917982181628 -0.6337934000162908 -0.449451027469286 -0.2844026308654417 -0.1538419578386543 -0.06095536810424873 0 -1.08757832475307 -0.8475732844991413 -0.6083094143061216 -0.3873017815421664 -0.2082814084595332 -0.08113261729031063 0 -1.118033801422131 -0.8184917982181621 -0.5308890583203012 -0.2860266547059775 -0.1102109745316127 0 -1.087578324753069 -0.7287055287395736 -0.3988553556852796 -0.1524051579584316 0 -0.9930515736886694 -0.5699709058958411 -0.2158668702850526 0 -0.8224977990491382 -0.3196768880348926 0 -0.5502241733638251 0 0 </DataArray>
        <DataArray type="Float64" Name="f" format="ascii">0 0 0.03169629189212408 0.03330407742961494 0 0.03829482378303894 0.06028413124365528 0.06333902451705387 0 0.04719298995481869 0.07281834800104647 0.08296412331290592 0.08716321542543826 0 0.0609553681042494 0.08970415036177548 0.1001871850486076 0.09752079432610361 0.1024517905242524 0 0.08113261729031063 0.1157712293884359 0.123361317488023 0.1177403264298826 0.1025356633495287 0.1077182780235062 0 0.1102109745316133 0.1538419578386545 0.1590519411259841 0.1449193076413877 0.1237847382780444 0.09752079432610339 0.1024517905242519 0 0.152405157958432 0.2082814084595332 0.2109294929436707 0.1866980519070653 0.1523367790098009 0.1177403264298826 0.08296412331290615 0.0871632154254387 0 0.2158668702850535 0.2860266547059782 0.2844026308654424 0.24719002143886 0.1961941218436907 0.1449193076413868 0.1001871850486076 0.06028413124365528 0.06333902451705398 0 0.319676888034893 0.3988553556852803 0.3873017815421669 0.3321987025253887 0.2596014337651056 0.1866980519070649 0.1233613174880228 0.07281834800104647 0.0316962918921242 0.03330407742961494 0 0.550224173363826 0.5699709058958424 0.5308890583203014 0.4494510274692862 0.3484437965345282 0.2471900214388587 0.159051941125983 0.08970415036177526 0.0382948237830385 0 0 0.8224977990491396 0.7287055287395738 0.6083094143061218 0.470269435644052 0.3321987025253883 0.21092949294367 0.1157712293884348 0.0471929899548178 0 0.9930515736886707 0.8184917982181628 0.6337934000162908 0.449451027469286 0.2844026308654417 0.1538419578386543 0.06095536810424873 0 1.08757832475307 0.8475732844991413 0.6083094143061216 0.3873017815421664 0.2082814084595332 0.08113261729031063 0 1.118033801422131 0.8184917982181621 0.5308890583203012 0.2860266547059775 0.1102109745316127 0 1.087578324753069 0.7287055287395736 0.3988553556852796 0.1524051579584316 0 0.9930515736886694 0.5699709058958411 0.2158668702850526 0 0.8224977990491382 0.3196768880348926 0 0.5502241733638251 0 0 </DataArray>
      </PointData>
    </Piece>
  </UnstructuredGrid>
</VTKFile>
