<?xml version="1.0"?>
<VTKFile type="UnstructuredGrid" version="2.2">
  <UnstructuredGrid>
    <Piece NumberOfPoints="121" NumberOfCells="100">
      <Points>
        <DataArray type="Float64" NumberOfComponents="3" format="ascii">0 0 0 0 0.1 0 0.1 0 0 0.1 0.1 0 0 0.2 0 0.1 0.2 0 0.2 0 0 0.2 0.1 0 0 0.3 0 0.1 0.3 0 0.2 0.2 0 0.3 0 0 0.3 0.1 0 0 0.4 0 0.1 0.4 0 0.2 0.3 0 0.3 0.2 0 0.4 0 0 0.4 0.1 0 0 0.5 0 0.1 0.5 0 0.2 0.4 0 0.3 0.3 0 0.4 0.2 0 0.5 0 0 0.5 0.1 0 0 0.6000000000000001 0 0.1 0.6000000000000001 0 0.2 0.5 0 0.3 0.4 0 0.4 0.3 0 0.5 0.2 0 0.6000000000000001 0 0 0.6000000000000001 0.1 0 0 0.7000000000000001 0 0.1 0.7000000000000001 0 0.2 0.6000000000000001 0 0.3 0.5 0 0.4 0.4 0 0.5 0.3 0 0.6000000000000001 0.2 0 0.7000000000000001 0 0 0.7000000000000001 0.1 0 0 0.8 0 0.1 0.8 0 0.2 0.7000000000000001 0 0.3 0.6000000000000001 0 0.4 0.5 0 0.5 0.4 0 0.6000000000000001 0.3 0 0.7000000000000001 0.2 0 0.8 0 0 0.8 0.1 0 0 0.9 0 0.1 0.9 0 0.2 0.8 0 0.3 0.7000000000000001 0 0.4 0.6000000000000001 0 0.5 0.5 0 0.6000000000000001 0.4 0 0.7000000000000001 0.3 0 0.8 0.2 0 0.9 0 0 0.9 0.1 0 0 1 0 0.1 1 0 0.2 0.9 0 0.3 0.8 0 0.4 0.7000000000000001 0 0.5 0.6000000000000001 0 0.6000000000000001 0.5 0 0.7000000000000001 0.4 0 0.8 0.3 0 0.9 0.2 0 1 0 0 1 0.1 0 0.2 1 0 0.3 0.9 0 0.4 0.8 0 0.5 0.7000000000000001 0 0.6000000000000001 0.6000000000000001 0 0.7000000000000001 0.5 0 0.8 0.4 0 0.9 0.3 0 1 0.2 0 0.3 1 0 0.4 0.9 0 0.5 0.8 0 0.6000000000000001 0.7000000000000001 0 0.7000000000000001 0.6000000000000001 0 0.8 0.5 0 0.9 0.4 0 1 0.3 0 0.4 1 0 0.5 0.9 0 0.6000000000000001 0.8 0 0.7000000000000001 0.7000000000000001 0 0.8 0.6000000000000001 0 0.9 0.5 0 1 0.4 0 0.5 1 0 0.6000000000000001 0.9 0 0.7000000000000001 0.8 0 0.8 0.7000000000000001 0 0.9 0.6000000000000001 0 1 0.5 0 0.6000000000000001 1 0 0.7000000000000001 0.9 0 0.8 0.8 0 0.9 0.7000000000000001 0 1 0.6000000000000001 0 0.7000000000000001 1 0 0.8 0.9 0 0.9 0.8 0 1 0.7000000000000001 0 0.8 1 0 0.9 0.9 0 1 0.8 0 0.9 1 0 1 0.9 0 1 1 0 </DataArray>
      </Points>
      <Cells>
        <DataArray type="Int32" Name="connectivity" format="ascii">0 1 3 2 1 4 5 3 2 3 7 6 4 8 9 5 3 5 10 7 6 7 12 11 8 13 14 9 5 9 15 10 7 10 16 12 11 12 18 17 13 19 20 14 9 14 21 15 10 15 22 16 12 16 23 18 17 18 25 24 19 26 27 20 14 20 28 21 15 21 29 22 16 22 30 23 18 23 31 25 24 25 33 32 26 34 35 27 20 27 36 28 21 28 37 29 22 29 38 30 23 30 39 31 25 31 40 33 32 33 42 41 34 43 44 35 27 35 45 36 28 36 46 37 29 37 47 38 30 38 48 39 31 39 49 40 33 40 50 42 41 42 52 51 43 53 54 44 35 44 55 45 36 45 56 46 37 46 57 47 38 47 58 48 39 48 59 49 40 49 60 50 42 50 61 52 51 52 63 62 53 64 65 54 44 54 66 55 45 55 67 56 46 56 68 57 47 57 69 58 48 58 70 59 49 59 71 60 50 60 72 61 52 61 73 63 62 63 75 74 54 65 76 66 55 66 77 67 56 67 78 68 57 68 79 69 58 69 80 70 59 70 81 71 60 71 82 72 61 72 83 73 63 73 84 75 66 76 85 77 67 77 86 78 68 78 87 79 69 79 88 80 70 80 89 81 71 81 90 82 72 82 91 83 73 83 92 84 77 85 93 86 78 86 94 87 79 87 95 88 80 88 96 89 81 89 97 90 82 90 98 91 83 91 99 92 86 93 100 94 87 94 101 95 88 95 102 96 89 96 103 97 90 97 104 98 91 98 105 99 94 100 106 101 95 101 107 102 96 102 108 103 97 103 109 104 98 104 110 105 101 106 111 107 102 107 112 108 103 108 113 109 104 109 114 110 107 111 115 112 108 112 116 113 109 113 117 114 112 115 118 116 113 116 119 117 116 118 120 119 </DataArray>
        <DataArray type="Int32" Name="offsets" format="ascii">4 8 12 16 20 24 28 32 36 40 44 48 52 56 60 64 68 72 76 80 84 88 92 96 100 104 108 112 116 120 124 128 132 136 140 144 148 152 156 160 164 168 172 176 180 184 188 192 196 200 204 208 212 216 220 224 228 232 236 240 244 248 252 256 260 264 268 272 276 280 284 288 292 296 300 304 308 312 316 320 324 328 332 336 340 344 348 352 356 360 364 368 372 376 380 384 388 392 396 400 </DataArray>
        <DataArray type="Int8" Name="types" format="ascii">70 70 70 70 70 70 70 70 70 70 70 70 70 70 70 70 70 70 70 70 70 70 70 70 70 70 70 70 70 70 70 70 70 70 70 70 70 70 70 70 70 70 70 70 70 70 70 70 70 70 70 70 70 70 70 70 70 70 70 70 70 70 70 70 70 70 70 70 70 70 70 70 70 70 70 70 70 70 70 70 70 70 70 70 70 70 70 70 70 70 70 70 70 70 70 70 70 70 70 70 </DataArray>
      </Cells>
      <CellData>
        <DataArray type="UInt8" Name="vtkGhostType" format="ascii" RangeMin="0" RangeMax="1">0 0 0 0 0 0 0 0 0 0 0 0 0 0 0 0 0 0 0 0 0 0 0 0 0 0 0 0 0 0 0 0 0 0 0 0 0 0 0 0 0 0 0 0 0 0 0 0 0 0 0 0 0 0 0 0 0 0 0 0 0 0 0 0 0 0 0 0 0 0 0 0 0 0 0 0 0 0 0 0 0 0 0 0 0 0 0 0 0 0 0 0 0 0 0 0 0 0 0 0 </DataArray>
        <DataArray type="Int64" IdType="1" Name="vtkOriginalCellIds" format="ascii" RangeMin="0" RangeMax="99">0 1 2 3 4 5 6 7 8 9 10 11 12 13 14 15 16 17 18 19 20 21 22 23 24 25 26 27 28 29 30 31 32 33 34 35 36 37 38 39 40 41 42 43 44 45 46 47 48 49 50 51 52 53 54 55 56 57 58 59 60 61 62 63 64 65 66 67 68 69 70 71 72 73 74 75 76 77 78 79 80 81 82 83 84 85 86 87 88 89 90 91 92 93 94 95 96 97 98 99 </DataArray>
      </CellData>
      <PointData>
        <DataArray type="Int64" IdType="1" Name="vtkOriginalPointIds" format="ascii" RangeMin="0" RangeMax="120">0 1 11 12 2 13 22 23 3 14 24 33 34 4 15 25 35 44 45 5 16 26 36 46 55 56 6 17 27 37 47 57 66 67 7 18 28 38 48 58 68 77 78 8 19 29 39 49 59 69 79 88 89 9 20 30 40 50 60 70 80 90 99 100 10 21 31 41 51 61 71 81 91 101 110 111 32 42 52 62 72 82 92 102 112 43 53 63 73 83 93 103 113 54 64 74 84 94 104 114 65 75 85 95 105 115 76 86 96 106 116 87 97 107 117 98 108 118 109 119 120 </DataArray>
        <DataArray type="UInt8" Name="vtkGhostType" format="ascii" RangeMin="0" RangeMax="0">0 0 0 0 0 0 0 0 0 0 0 0 0 0 0 0 0 0 0 0 0 0 0 0 0 0 0 0 0 0 0 0 0 0 0 0 0 0 0 0 0 0 0 0 0 0 0 0 0 0 0 0 0 0 0 0 0 0 0 0 0 0 0 0 0 0 0 0 0 0 0 0 0 0 0 0 0 0 0 0 0 0 0 0 0 0 0 0 0 0 0 0 0 0 0 0 0 0 0 0 0 0 0 0 0 0 0 0 0 0 0 0 0 0 0 0 0 0 0 0 0 </DataArray>
      </PointData>
    </Piece>
  </UnstructuredGrid>
</VTKFile>
