<?xml version="1.0"?>
<VTKFile type="UnstructuredGrid" version="2.2">
  <UnstructuredGrid>
    <Piece NumberOfPoints="121" NumberOfCells="100">
      <Points>
        <DataArray type="Float64" NumberOfComponents="3" format="ascii">2.775557561562892e-18 5.551115123125783e-18 0 2.775557561562892e-18 0.1 0 0.1 5.551115123125783e-18 0 0.1 0.1 0 2.775557561562892e-18 0.2 0 0.1 0.2 0 0.2 5.551115123125783e-18 0 0.2 0.1 0 2.775557561562892e-18 0.3 0 0.1 0.3 0 0.2 0.2 0 0.3 5.551115123125783e-18 0 0.3 0.1 0 2.775557561562892e-18 0.4 0 0.1 0.4 0 0.2 0.3 0 0.3 0.2 0 0.4 5.551115123125783e-18 0 0.4 0.1 0 2.775557561562892e-18 0.5 0 0.1 0.5 0 0.2 0.4 0 0.3 0.3 0 0.4 0.2 0 0.5 5.551115123125783e-18 0 0.5 0.1 0 2.775557561562892e-18 0.6 0 0.1 0.6 0 0.2 0.5 0 0.3 0.4 0 0.4 0.3 0 0.5 0.2 0 0.6 5.551115123125783e-18 0 0.6 0.1 0 2.775557561562892e-18 0.7 0 0.1 0.7 0 0.2 0.6 0 0.3 0.5 0 0.4 0.4 0 0.5 0.3 0 0.6 0.2 0 0.7 5.551115123125783e-18 0 0.7 0.1 0 2.775557561562892e-18 0.7999999999999999 0 0.1 0.7999999999999999 0 0.2 0.7 0 0.3 0.6 0 0.4 0.5 0 0.5 0.4 0 0.6 0.3 0 0.7 0.2 0 0.7999999999999999 5.551115123125783e-18 0 0.7999999999999999 0.1 0 2.775557561562892e-18 0.8999999999999999 0 0.1 0.8999999999999999 0 0.2 0.7999999999999999 0 0.3 0.7 0 0.4 0.6 0 0.5 0.5 0 0.6 0.4 0 0.7 0.3 0 0.7999999999999999 0.2 0 0.8999999999999999 5.551115123125783e-18 0 0.8999999999999999 0.1 0 -2.775557561562892e-18 1 0 0.1 1 0 0.2 0.8999999999999999 0 0.3 0.7999999999999999 0 0.4 0.7 0 0.5 0.6 0 0.6 0.5 0 0.7 0.4 0 0.7999999999999999 0.3 0 0.8999999999999999 0.2 0 1 -2.775557561562892e-18 0 1 0.1 0 0.2 1 0 0.3 0.8999999999999999 0 0.4 0.7999999999999999 0 0.5 0.7 0 0.6 0.6 0 0.7 0.5 0 0.7999999999999999 0.4 0 0.8999999999999999 0.3 0 1 0.2 0 0.3000000000000001 1 0 0.4 0.8999999999999999 0 0.5 0.7999999999999999 0 0.6 0.7 0 0.7 0.6 0 0.7999999999999999 0.5 0 0.8999999999999999 0.4 0 1 0.3000000000000001 0 0.4 1 0 0.5 0.8999999999999999 0 0.6 0.7999999999999999 0 0.7 0.7 0 0.7999999999999999 0.6 0 0.8999999999999999 0.5 0 1 0.4 0 0.5000000000000001 1 0 0.6 0.8999999999999999 0 0.7 0.7999999999999999 0 0.7999999999999999 0.7 0 0.8999999999999999 0.6 0 1 0.5000000000000001 0 0.6000000000000002 1 0 0.7 0.8999999999999999 0 0.7999999999999999 0.7999999999999999 0 0.8999999999999999 0.7 0 1 0.6000000000000002 0 0.7000000000000002 1 0 0.7999999999999999 0.8999999999999999 0 0.8999999999999999 0.7999999999999999 0 1 0.7000000000000002 0 0.8000000000000002 1 0 0.8999999999999999 0.8999999999999999 0 1 0.8000000000000002 0 0.9000000000000001 1 0 1 0.9000000000000001 0 0.9999999999999999 0.9999999999999999 0 </DataArray>
      </Points>
      <Cells>
        <DataArray type="Int32" Name="connectivity" format="ascii">0 1 3 2 1 4 5 3 2 3 7 6 4 8 9 5 3 5 10 7 6 7 12 11 8 13 14 9 5 9 15 10 7 10 16 12 11 12 18 17 13 19 20 14 9 14 21 15 10 15 22 16 12 16 23 18 17 18 25 24 19 26 27 20 14 20 28 21 15 21 29 22 16 22 30 23 18 23 31 25 24 25 33 32 26 34 35 27 20 27 36 28 21 28 37 29 22 29 38 30 23 30 39 31 25 31 40 33 32 33 42 41 34 43 44 35 27 35 45 36 28 36 46 37 29 37 47 38 30 38 48 39 31 39 49 40 33 40 50 42 41 42 52 51 43 53 54 44 35 44 55 45 36 45 56 46 37 46 57 47 38 47 58 48 39 48 59 49 40 49 60 50 42 50 61 52 51 52 63 62 53 64 65 54 44 54 66 55 45 55 67 56 46 56 68 57 47 57 69 58 48 58 70 59 49 59 71 60 50 60 72 61 52 61 73 63 62 63 75 74 54 65 76 66 55 66 77 67 56 67 78 68 57 68 79 69 58 69 80 70 59 70 81 71 60 71 82 72 61 72 83 73 63 73 84 75 66 76 85 77 67 77 86 78 68 78 87 79 69 79 88 80 70 80 89 81 71 81 90 82 72 82 91 83 73 83 92 84 77 85 93 86 78 86 94 87 79 87 95 88 80 88 96 89 81 89 97 90 82 90 98 91 83 91 99 92 86 93 100 94 87 94 101 95 88 95 102 96 89 96 103 97 90 97 104 98 91 98 105 99 94 100 106 101 95 101 107 102 96 102 108 103 97 103 109 104 98 104 110 105 101 106 111 107 102 107 112 108 103 108 113 109 104 109 114 110 107 111 115 112 108 112 116 113 109 113 117 114 112 115 118 116 113 116 119 117 116 118 120 119 </DataArray>
        <DataArray type="Int32" Name="offsets" format="ascii">4 8 12 16 20 24 28 32 36 40 44 48 52 56 60 64 68 72 76 80 84 88 92 96 100 104 108 112 116 120 124 128 132 136 140 144 148 152 156 160 164 168 172 176 180 184 188 192 196 200 204 208 212 216 220 224 228 232 236 240 244 248 252 256 260 264 268 272 276 280 284 288 292 296 300 304 308 312 316 320 324 328 332 336 340 344 348 352 356 360 364 368 372 376 380 384 388 392 396 400 </DataArray>
        <DataArray type="Int8" Name="types" format="ascii">70 70 70 70 70 70 70 70 70 70 70 70 70 70 70 70 70 70 70 70 70 70 70 70 70 70 70 70 70 70 70 70 70 70 70 70 70 70 70 70 70 70 70 70 70 70 70 70 70 70 70 70 70 70 70 70 70 70 70 70 70 70 70 70 70 70 70 70 70 70 70 70 70 70 70 70 70 70 70 70 70 70 70 70 70 70 70 70 70 70 70 70 70 70 70 70 70 70 70 70 </DataArray>
      </Cells>
      <CellData>
        <DataArray type="UInt8" Name="vtkGhostType" format="ascii" RangeMin="0" RangeMax="1">0 0 0 0 0 0 0 0 0 0 0 0 0 0 0 0 0 0 0 0 0 0 0 0 0 0 0 0 0 0 0 0 0 0 0 0 0 0 0 0 0 0 0 0 0 0 0 0 0 0 0 0 0 0 0 0 0 0 0 0 0 0 0 0 0 0 0 0 0 0 0 0 0 0 0 0 0 0 0 0 0 0 0 0 0 0 0 0 0 0 0 0 0 0 0 0 0 0 0 0 </DataArray>
        <DataArray type="Int64" IdType="1" Name="vtkOriginalCellIds" format="ascii" RangeMin="0" RangeMax="99">0 1 2 3 4 5 6 7 8 9 10 11 12 13 14 15 16 17 18 19 20 21 22 23 24 25 26 27 28 29 30 31 32 33 34 35 36 37 38 39 40 41 42 43 44 45 46 47 48 49 50 51 52 53 54 55 56 57 58 59 60 61 62 63 64 65 66 67 68 69 70 71 72 73 74 75 76 77 78 79 80 81 82 83 84 85 86 87 88 89 90 91 92 93 94 95 96 97 98 99 </DataArray>
      </CellData>
      <PointData Scalars="f">
        <DataArray type="Int64" IdType="1" Name="vtkOriginalPointIds" format="ascii" RangeMin="0" RangeMax="120">0 1 2 3 4 5 6 7 8 9 10 11 12 13 14 15 16 17 18 19 20 21 22 23 24 25 26 27 28 29 30 31 32 33 34 35 36 37 38 39 40 41 42 43 44 45 46 47 48 49 50 51 52 53 54 55 56 57 58 59 60 61 62 63 64 65 66 67 68 69 70 71 72 73 74 75 76 77 78 79 80 81 82 83 84 85 86 87 88 89 90 91 92 93 94 95 96 97 98 99 100 101 102 103 104 105 106 107 108 109 110 111 112 113 114 115 116 117 118 119 120 </DataArray>
        <DataArray type="UInt8" Name="vtkGhostType" format="ascii" RangeMin="0" RangeMax="0">0 0 0 0 0 0 0 0 0 0 0 0 0 0 0 0 0 0 0 0 0 0 0 0 0 0 0 0 0 0 0 0 0 0 0 0 0 0 0 0 0 0 0 0 0 0 0 0 0 0 0 0 0 0 0 0 0 0 0 0 0 0 0 0 0 0 0 0 0 0 0 0 0 0 0 0 0 0 0 0 0 0 0 0 0 0 0 0 0 0 0 0 0 0 0 0 0 0 0 0 0 0 0 0 0 0 0 0 0 0 0 0 0 0 0 0 0 0 0 0 0 </DataArray>
        <DataArray type="Float64" Name="f" format="ascii">1 1.02 1.01 1.03 1.08 1.09 1.04 1.06 1.18 1.19 1.12 1.09 1.11 1.32 1.33 1.22 1.17 1.16 1.18 1.5 1.51 1.36 1.27 1.24 1.25 1.27 1.72 1.73 1.54 1.410000000000001 1.340000000000001 1.330000000000001 1.36 1.38 1.98 1.99 1.760000000000001 1.590000000000002 1.480000000000001 1.430000000000001 1.44 1.49 1.51 2.28 2.29 2.020000000000001 1.810000000000001 1.660000000000001 1.570000000000002 1.540000000000001 1.570000000000001 1.64 1.660000000000001 2.62 2.63 2.320000000000001 2.070000000000002 1.880000000000001 1.750000000000002 1.680000000000001 1.670000000000001 1.720000000000001 1.81 1.830000000000001 3.000000000000001 3.010000000000001 2.660000000000001 2.370000000000001 2.140000000000002 1.970000000000002 1.860000000000002 1.810000000000001 1.820000000000002 1.890000000000001 2 2.02 3.040000000000001 2.710000000000002 2.440000000000002 2.230000000000003 2.080000000000003 1.990000000000002 1.960000000000003 1.990000000000001 2.080000000000001 3.090000000000001 2.780000000000002 2.530000000000002 2.340000000000003 2.210000000000002 2.140000000000001 2.130000000000002 2.180000000000001 3.160000000000001 2.870000000000001 2.640000000000001 2.470000000000002 2.36 2.310000000000001 2.32 3.250000000000001 2.980000000000001 2.770000000000002 2.620000000000001 2.530000000000001 2.500000000000001 3.360000000000001 3.110000000000002 2.920000000000002 2.790000000000001 2.720000000000001 3.490000000000001 3.260000000000001 3.090000000000001 2.980000000000001 3.640000000000001 3.430000000000001 3.280000000000001 3.810000000000001 3.620000000000001 3.999999999999999 </DataArray>
      </PointData>
    </Piece>
  </UnstructuredGrid>
</VTKFile>
