<?xml version="1.0"?>
<VTKFile type="UnstructuredGrid" version="2.2">
  <UnstructuredGrid>
    <Piece NumberOfPoints="396" NumberOfCells="250">
      <Points>
        <DataArray type="Float64" NumberOfComponents="3" format="ascii">-1.110223024625157e-17 -4.440892098500625e-18 1.665334536937735e-18 0.09999999999999995 -4.440892098500625e-18 1.665334536937735e-18 -1.110223024625157e-17 0.03999999999999998 1.665334536937735e-18 0.09999999999999995 0.03999999999999998 1.665334536937735e-18 -1.110223024625157e-17 -4.440892098500625e-18 0.03999999999999998 0.09999999999999995 -4.440892098500625e-18 0.03999999999999998 -1.110223024625157e-17 0.03999999999999998 0.03999999999999998 0.09999999999999995 0.03999999999999998 0.03999999999999998 0.1999999999999999 -4.440892098500625e-18 1.665334536937735e-18 0.1999999999999999 0.03999999999999998 1.665334536937735e-18 0.1999999999999999 -4.440892098500625e-18 0.03999999999999998 0.1999999999999999 0.03999999999999998 0.03999999999999998 -1.110223024625157e-17 0.07999999999999996 1.665334536937735e-18 0.09999999999999995 0.07999999999999996 1.665334536937735e-18 -1.110223024625157e-17 0.07999999999999996 0.03999999999999998 0.09999999999999995 0.07999999999999996 0.03999999999999998 -1.110223024625157e-17 -4.440892098500625e-18 0.07999999999999996 0.09999999999999995 -4.440892098500625e-18 0.07999999999999996 -1.110223024625157e-17 0.03999999999999998 0.07999999999999996 0.09999999999999995 0.03999999999999998 0.07999999999999996 0.2999999999999999 -4.440892098500625e-18 1.665334536937735e-18 0.2999999999999999 0.03999999999999998 1.665334536937735e-18 0.2999999999999999 -4.440892098500625e-18 0.03999999999999998 0.2999999999999999 0.03999999999999998 0.03999999999999998 0.1999999999999999 0.07999999999999996 1.665334536937735e-18 0.1999999999999999 0.07999999999999996 0.03999999999999998 0.1999999999999999 -4.440892098500625e-18 0.07999999999999996 0.1999999999999999 0.03999999999999998 0.07999999999999996 -1.110223024625157e-17 0.12 1.665334536937735e-18 0.09999999999999995 0.12 1.665334536937735e-18 -1.110223024625157e-17 0.12 0.03999999999999998 0.09999999999999995 0.12 0.03999999999999998 -1.110223024625157e-17 0.07999999999999996 0.07999999999999996 0.09999999999999995 0.07999999999999996 0.07999999999999996 -1.110223024625157e-17 -4.440892098500625e-18 0.12 0.09999999999999995 -4.440892098500625e-18 0.12 -1.110223024625157e-17 0.03999999999999998 0.12 0.09999999999999995 0.03999999999999998 0.12 0.3999999999999999 -4.440892098500625e-18 1.665334536937735e-18 0.3999999999999999 0.03999999999999998 1.665334536937735e-18 0.3999999999999999 -4.440892098500625e-18 0.03999999999999998 0.3999999999999999 0.03999999999999998 0.03999999999999998 0.2999999999999999 0.07999999999999996 1.665334536937735e-18 0.2999999999999999 0.07999999999999996 0.03999999999999998 0.2999999999999999 -4.440892098500625e-18 0.07999999999999996 0.2999999999999999 0.03999999999999998 0.07999999999999996 0.1999999999999999 0.12 1.665334536937735e-18 0.1999999999999999 0.12 0.03999999999999998 0.1999999999999999 0.07999999999999996 0.07999999999999996 0.1999999999999999 -4.440892098500625e-18 0.12 0.1999999999999999 0.03999999999999998 0.12 -1.110223024625157e-17 0.1599999999999999 1.665334536937735e-18 0.09999999999999995 0.1599999999999999 1.665334536937735e-18 -1.110223024625157e-17 0.1599999999999999 0.03999999999999998 0.09999999999999995 0.1599999999999999 0.03999999999999998 -1.110223024625157e-17 0.12 0.07999999999999996 0.09999999999999995 0.12 0.07999999999999996 -1.110223024625157e-17 0.07999999999999996 0.12 0.09999999999999995 0.07999999999999996 0.12 -1.110223024625157e-17 -4.440892098500625e-18 0.1599999999999999 0.09999999999999995 -4.440892098500625e-18 0.1599999999999999 -1.110223024625157e-17 0.03999999999999998 0.1599999999999999 0.09999999999999995 0.03999999999999998 0.1599999999999999 0.4999999999999998 -4.440892098500625e-18 1.665334536937735e-18 0.4999999999999998 0.03999999999999998 1.665334536937735e-18 0.4999999999999998 -4.440892098500625e-18 0.03999999999999998 0.4999999999999998 0.03999999999999998 0.03999999999999998 0.3999999999999999 0.07999999999999996 1.665334536937735e-18 0.3999999999999999 0.07999999999999996 0.03999999999999998 0.3999999999999999 -4.440892098500625e-18 0.07999999999999996 0.3999999999999999 0.03999999999999998 0.07999999999999996 0.2999999999999999 0.12 1.665334536937735e-18 0.2999999999999999 0.12 0.03999999999999998 0.2999999999999999 0.07999999999999996 0.07999999999999996 0.2999999999999999 -4.440892098500625e-18 0.12 0.2999999999999999 0.03999999999999998 0.12 0.1999999999999999 0.1599999999999999 1.665334536937735e-18 0.1999999999999999 0.1599999999999999 0.03999999999999998 0.1999999999999999 0.12 0.07999999999999996 0.1999999999999999 0.07999999999999996 0.12 0.1999999999999999 -4.440892098500625e-18 0.1599999999999999 0.1999999999999999 0.03999999999999998 0.1599999999999999 2.220446049250313e-17 0.2 4.996003610813205e-18 0.1 0.2 4.996003610813205e-18 2.220446049250313e-17 0.2 0.04000000000000001 0.1 0.2 0.04000000000000001 -1.110223024625157e-17 0.1599999999999999 0.07999999999999996 0.09999999999999995 0.1599999999999999 0.07999999999999996 -1.110223024625157e-17 0.12 0.12 0.09999999999999995 0.12 0.12 -1.110223024625157e-17 0.07999999999999996 0.1599999999999999 0.09999999999999995 0.07999999999999996 0.1599999999999999 2.359223927328458e-17 9.436895709313831e-18 0.2000000000000001 0.1000000000000001 9.436895709313831e-18 0.2000000000000001 2.359223927328458e-17 0.04000000000000003 0.2000000000000001 0.1000000000000001 0.04000000000000003 0.2000000000000001 0.5999999999999998 -4.440892098500625e-18 1.665334536937735e-18 0.5999999999999998 0.03999999999999998 1.665334536937735e-18 0.5999999999999998 -4.440892098500625e-18 0.03999999999999998 0.5999999999999998 0.03999999999999998 0.03999999999999998 0.4999999999999998 0.07999999999999996 1.665334536937735e-18 0.4999999999999998 0.07999999999999996 0.03999999999999998 0.4999999999999998 -4.440892098500625e-18 0.07999999999999996 0.4999999999999998 0.03999999999999998 0.07999999999999996 0.3999999999999999 0.12 1.665334536937735e-18 0.3999999999999999 0.12 0.03999999999999998 0.3999999999999999 0.07999999999999996 0.07999999999999996 0.3999999999999999 -4.440892098500625e-18 0.12 0.3999999999999999 0.03999999999999998 0.12 0.2999999999999999 0.1599999999999999 1.665334536937735e-18 0.2999999999999999 0.1599999999999999 0.03999999999999998 0.2999999999999999 0.12 0.07999999999999996 0.2999999999999999 0.07999999999999996 0.12 0.2999999999999999 -4.440892098500625e-18 0.1599999999999999 0.2999999999999999 0.03999999999999998 0.1599999999999999 0.2000000000000001 0.2 4.996003610813205e-18 0.2000000000000001 0.2 0.04000000000000001 0.1999999999999999 0.1599999999999999 0.07999999999999996 0.1999999999999999 0.12 0.12 0.1999999999999999 0.07999999999999996 0.1599999999999999 0.2000000000000001 9.436895709313831e-18 0.2000000000000001 0.2000000000000001 0.04000000000000003 0.2000000000000001 2.220446049250313e-17 0.2 0.08000000000000003 0.1 0.2 0.08000000000000003 -1.110223024625157e-17 0.1599999999999999 0.12 0.09999999999999995 0.1599999999999999 0.12 -1.110223024625157e-17 0.12 0.1599999999999999 0.09999999999999995 0.12 0.1599999999999999 2.359223927328458e-17 0.08000000000000004 0.2000000000000001 0.1000000000000001 0.08000000000000004 0.2000000000000001 0.6999999999999997 -4.440892098500625e-18 1.665334536937735e-18 0.6999999999999997 0.03999999999999998 1.665334536937735e-18 0.6999999999999997 -4.440892098500625e-18 0.03999999999999998 0.6999999999999997 0.03999999999999998 0.03999999999999998 0.5999999999999998 0.07999999999999996 1.665334536937735e-18 0.5999999999999998 0.07999999999999996 0.03999999999999998 0.5999999999999998 -4.440892098500625e-18 0.07999999999999996 0.5999999999999998 0.03999999999999998 0.07999999999999996 0.4999999999999998 0.12 1.665334536937735e-18 0.4999999999999998 0.12 0.03999999999999998 0.4999999999999998 0.07999999999999996 0.07999999999999996 0.4999999999999998 -4.440892098500625e-18 0.12 0.4999999999999998 0.03999999999999998 0.12 0.3999999999999999 0.1599999999999999 1.665334536937735e-18 0.3999999999999999 0.1599999999999999 0.03999999999999998 0.3999999999999999 0.12 0.07999999999999996 0.3999999999999999 0.07999999999999996 0.12 0.3999999999999999 -4.440892098500625e-18 0.1599999999999999 0.3999999999999999 0.03999999999999998 0.1599999999999999 0.3000000000000002 0.2 4.996003610813205e-18 0.3000000000000002 0.2 0.04000000000000001 0.2999999999999999 0.1599999999999999 0.07999999999999996 0.2999999999999999 0.12 0.12 0.2999999999999999 0.07999999999999996 0.1599999999999999 0.3000000000000002 9.436895709313831e-18 0.2000000000000001 0.3000000000000002 0.04000000000000003 0.2000000000000001 0.2000000000000001 0.2 0.08000000000000003 0.1999999999999999 0.1599999999999999 0.12 0.1999999999999999 0.12 0.1599999999999999 0.2000000000000001 0.08000000000000004 0.2000000000000001 2.220446049250313e-17 0.2 0.12 0.1 0.2 0.12 -1.110223024625157e-17 0.1599999999999999 0.1599999999999999 0.09999999999999995 0.1599999999999999 0.1599999999999999 2.359223927328458e-17 0.1200000000000001 0.2000000000000001 0.1000000000000001 0.1200000000000001 0.2000000000000001 0.7999999999999997 -4.440892098500625e-18 1.665334536937735e-18 0.7999999999999997 0.03999999999999998 1.665334536937735e-18 0.7999999999999997 -4.440892098500625e-18 0.03999999999999998 0.7999999999999997 0.03999999999999998 0.03999999999999998 0.6999999999999997 0.07999999999999996 1.665334536937735e-18 0.6999999999999997 0.07999999999999996 0.03999999999999998 0.6999999999999997 -4.440892098500625e-18 0.07999999999999996 0.6999999999999997 0.03999999999999998 0.07999999999999996 0.5999999999999998 0.12 1.665334536937735e-18 0.5999999999999998 0.12 0.03999999999999998 0.5999999999999998 0.07999999999999996 0.07999999999999996 0.5999999999999998 -4.440892098500625e-18 0.12 0.5999999999999998 0.0399999
[...]
      <CellData Scalars="Stress von Mises">
        <DataArray type="UInt8" Name="vtkGhostType" format="ascii" RangeMin="0" RangeMax="1">0 0 0 0 0 0 0 0 0 0 0 0 0 0 0 0 0 0 0 0 0 0 0 0 0 0 0 0 0 0 0 0 0 0 0 0 0 0 0 0 0 0 0 0 0 0 0 0 0 0 0 0 0 0 0 0 0 0 0 0 0 0 0 0 0 0 0 0 0 0 0 0 0 0 0 0 0 0 0 0 0 0 0 0 0 0 0 0 0 0 0 0 0 0 0 0 0 0 0 0 0 0 0 0 0 0 0 0 0 0 0 0 0 0 0 0 0 0 0 0 0 0 0 0 0 0 0 0 0 0 0 0 0 0 0 0 0 0 0 0 0 0 0 0 0 0 0 0 0 0 0 0 0 0 0 0 0 0 0 0 0 0 0 0 0 0 0 0 0 0 0 0 0 0 0 0 0 0 0 0 0 0 0 0 0 0 0 0 0 0 0 0 0 0 0 0 0 0 0 0 0 0 0 0 0 0 0 0 0 0 0 0 0 0 0 0 0 0 0 0 0 0 0 0 0 0 0 0 0 0 0 0 0 0 0 0 0 0 0 0 0 0 0 0 0 0 0 0 0 0 </DataArray>
        <DataArray type="Int64" IdType="1" Name="vtkOriginalCellIds" format="ascii" RangeMin="0" RangeMax="249">0 1 2 3 4 5 6 7 8 9 10 11 12 13 14 15 16 17 18 19 20 21 22 23 24 25 26 27 28 29 30 31 32 33 34 35 36 37 38 39 40 41 42 43 44 45 46 47 48 49 50 51 52 53 54 55 56 57 58 59 60 61 62 63 64 65 66 67 68 69 70 71 72 73 74 75 76 77 78 79 80 81 82 83 84 85 86 87 88 89 90 91 92 93 94 95 96 97 98 99 100 101 102 103 104 105 106 107 108 109 110 111 112 113 114 115 116 117 118 119 120 121 122 123 124 125 126 127 128 129 130 131 132 133 134 135 136 137 138 139 140 141 142 143 144 145 146 147 148 149 150 151 152 153 154 155 156 157 158 159 160 161 162 163 164 165 166 167 168 169 170 171 172 173 174 175 176 177 178 179 180 181 182 183 184 185 186 187 188 189 190 191 192 193 194 195 196 197 198 199 200 201 202 203 204 205 206 207 208 209 210 211 212 213 214 215 216 217 218 219 220 221 222 223 224 225 226 227 228 229 230 231 232 233 234 235 236 237 238 239 240 241 242 243 244 245 246 247 248 249 </DataArray>
        <DataArray type="Float64" Name="Stress von Mises" format="ascii">0.2694324055750907 0.2576148296664458 0.2649927490142191 0.1331746832438329 0.1974322715385485 0.2618126792523687 0.1437238631552938 0.264296695438438 0.1355445234813069 0.04284347878886853 0.1506203046165347 0.1981599361346079 0.1120703884948573 0.2612040053017378 0.146928753108526 0.07266777066101848 0.2649927490144008 0.136541751090682 0.0593961982562374 0.1331746832441885 0.1082925937855042 0.1495855843473178 0.08864891529692712 0.1989940081421279 0.1101398425041364 0.06303337898747075 0.2618126792525574 0.1473513562328108 0.07351247710424821 0.1437238631556397 0.2694324055754646 0.1355445234814751 0.06374251343623259 0.1355445234814712 0.2694324055754658 0.07352996464756992 0.1077266630350507 0.0670725644336003 0.1493267235098726 0.08582557247861911 0.05490453192861549 0.1981599361347589 0.1100557349789818 0.0573692950447187 0.1120703884951248 0.2576148296668201 0.1469287531087074 0.07430602206979504 0.1469287531087023 0.2576148296668208 0.1331746832441929 0.05939619825625247 0.1365417510906836 0.2649927490143999 0.04562862233713744 0.07293902156699975 0.0489715305996733 0.1075797600912107 0.06473741464728916 0.04656548136976506 0.149585584347442 0.08499216296062864 0.04976911924801031 0.08864891529713306 0.1974322715388534 0.1101398425042774 0.05582459074891652 0.1101398425042742 0.1974322715388516 0.1437238631556524 0.07351247710426505 0.1473513562328121 0.2618126792525587 0.04284347878890184 0.1355445234813136 0.2642966954384394 0.0246816515730661 0.04504764402834102 0.03398509410968913 0.07283104864707067 0.04679452497036693 0.0380090896728734 0.1077266630351393 0.06406712476866699 0.04246433196349158 0.06707256443376414 0.150620304616782 0.08582557247873231 0.04807914135033161 0.08582557247872453 0.1506203046167783 0.1120703884951398 0.05736929504473262 0.1100557349789845 0.1981599361347599 0.07266777066105609 0.1469287531085339 0.2612040053017399 0.1331746832438406 0.264992749014223 0.01051031381198669 0.02411470939740148 0.02184203364641914 0.04492666843217315 0.03206605363800618 0.02959054830336337 0.0729390215670586 0.04618966143632744 0.03463973568853037 0.04897153059977744 0.10829259378569 0.06473741464737512 0.04114728961553388 0.06473741464737635 0.1082925937856921 0.08864891529715087 0.04976911924802592 0.08499216296062838 0.1495855843474401 0.06303337898750469 0.1101398425041423 0.1989940081421304 0.1437238631553097 0.2618126792523714 0.2694324055750925 0.002600443816968694 0.01004348062559338 0.01204554601297303 0.02400189508695747 0.02030139493425571 0.02110168904105206 0.0450476440283846 0.03152084056289449 0.0269657710317151 0.0339850941097592 0.07352996464769677 0.04679452497041845 0.03356633974431767 0.04679452497042463 0.07352996464770341 0.06707256443377661 0.04246433196351236 0.06406712476867331 0.1077266630351464 0.05490453192865286 0.08582557247862532 0.1493267235098731 0.1120703884948712 0.1981599361346117 0.2576148296664495 0.00241978235522618 0.004155254844231362 0.009958010128646879 0.01102247580313023 0.01272071743627683 0.02411470939742387 0.01986191347123397 0.01923674276517649 0.02184203364644018 0.04562862233722145 0.0320660536380379 0.02612669516685027 0.03206605363804643 0.04562862233722827 0.04897153059977753 0.03463973568852621 0.04618966143633502 0.07293902156706727 0.04656548136980668 0.0647374146473032 0.107579760091216 0.08864891529694324 0.1495855843473203 0.1974322715385529 0.0023979496938244 0.00371131162109615 0.004755942526346386 0.01004348062559475 0.01072388310562014 0.01158432204698369 0.01204554601299952 0.02468165157311083 0.02030139493427781 0.01864090287207979 0.02030139493427537 0.02468165157311104 0.03398509410974655 0.02696577103171584 0.03152084056289547 0.04504764402838966 0.03800908967287465 0.04679452497037173 0.07283104864707148 0.06707256443363568 0.1077266630350516 0.1506203046165389 0.002419782355233733 0.003581121011260228 0.004247816817407284 0.004155254844220952 0.01051031381199895 0.01102247580311698 0.01121592497632341 0.01102247580314025 0.01051031381200918 0.02184203364644799 0.01923674276518052 0.01986191347124311 0.02411470939742325 0.02959054830336261 0.03206605363801397 0.04492666843217867 0.04897153059967877 0.07293902156699787 0.1082925937855097 0.00260044381696879 0.003711311621095151 0.004089144122044909 0.003711311621092765 0.002600443816957817 0.01204554601296967 0.011584322046975 0.01072388310561684 0.01004348062560372 0.02110168904105497 0.02030139493426072 0.02400189508695913 0.03398509410969985 0.04504764402834575 0.0735299646475706 0.004155254844222986 0.004247816817407457 0.003581121011266065 0.00241978235522454 0.01272071743625449 0.01102247580311944 0.009958010128645878 0.02184203364641955 0.0241147093974036 0.04562862233714402 0.004755942526350514 0.003711311621095887 0.002397949693831454 0.01204554601296244 0.01004348062558762 0.02468165157306815 0.004155254844233265 0.002419782355231481 0.01051031381198147 0.00260044381697036 </DataArray>
      </CellData>
      <PointData Vectors="Deformation">
        <DataArray type="Int64" IdType="1" Name="vtkOriginalPointIds" format="ascii" RangeMin="0" RangeMax="395">0 1 2 3 4 5 6 7 8 9 10 11 12 13 14 15 16 17 18 19 20 21 22 23 24 25 26 27 28 29 30 31 32 33 34 35 36 37 38 39 40 41 42 43 44 45 46 47 48 49 50 51 52 53 54 55 56 57 58 59 60 61 62 63 64 65 66 67 68 69 70 71 72 73 74 75 76 77 78 79 80 81 82 83 84 85 86 87 88 89 90 91 92 93 94 95 96 97 98 99 100 101 102 103 104 105 106 107 108 109 110 111 112 113 114 115 116 117 118 119 120 121 122 123 124 125 126 127 128 129 130 131 132 133 134 135 136 137 138 139 140 141 142 143 144 145 146 147 148 149 150 151 152 153 154 155 156 157 158 159 160 161 162 163 164 165 166 167 168 169 170 171 172 173 174 175 176 177 178 179 180 181 182 183 184 185 186 187 188 189 190 191 192 193 194 195 196 197 198 199 200 201 202 203 204 205 206 207 208 209 210 211 212 213 214 215 216 217 218 219 220 221 222 223 224 225 226 227 228 229 230 231 232 233 234 235 236 237 238 239 240 241 242 243 244 245 246 247 248 249 250 251 252 253 254 255 256 257 258 259 260 261 262 263 264 265 266 267 268 269 270 271 272 273 274 275 276 277 278 279 280 281 282 283 284 285 286 287 288 289 290 291 292 293 294 295 296 297 298 299 300 301 302 303 304 305 306 307 308 309 310 311 312 313 314 315 316 317 318 319 320 321 322 323 324 325 326 327 328 329 330 331 332 333 334 335 336 337 338 339 340 341 342 343 344 345 346 347 348 349 350 351 352 353 354 355 356 357 358 359 360 361 362 363 364 365 366 367 368 369 370 371 372 373 374 375 376 377 378 379 380 381 382 383 384 385 386 387 388 389 390 391 392 393 394 395 </DataArray>
        <DataArray type="UInt8" Name="vtkGhostType" format="ascii" RangeMin="0" RangeMax="0">0 0 0 0 0 0 0 0 0 0 0 0 0 0 0 0 0 0 0 0 0 0 0 0 0 0 0 0 0 0 0 0 0 0 0 0 0 0 0 0 0 0 0 0 0 0 0 0 0 0 0 0 0 0 0 0 0 0 0 0 0 0 0 0 0 0 0 0 0 0 0 0 0 0 0 0 0 0 0 0 0 0 0 0 0 0 0 0 0 0 0 0 0 0 0 0 0 0 0 0 0 0 0 0 0 0 0 0 0 0 0 0 0 0 0 0 0 0 0 0 0 0 0 0 0 0 0 0 0 0 0 0 0 0 0 0 0 0 0 0 0 0 0 0 0 0 0 0 0 0 0 0 0 0 0 0 0 0 0 0 0 0 0 0 0 0 0 0 0 0 0 0 0 0 0 0 0 0 0 0 0 0 0 0 0 0 0 0 0 0 0 0 0 0 0 0 0 0 0 0 0 0 0 0 0 0 0 0 0 0 0 0 0 0 0 0 0 0 0 0 0 0 0 0 0 0 0 0 0 0 0 0 0 0 0 0 0 0 0 0 0 0 0 0 0 0 0 0 0 0 0 0 0 0 0 0 0 0 0 0 0 0 0 0 0 0 0 0 0 0 0 0 0 0 0 0 0 0 0 0 0 0 0 0 0 0 0 0 0 0 0 0 0 0 0 0 0 0 0 0 0 0 0 0 0 0 0 0 0 0 0 0 0 0 0 0 0 0 0 0 0 0 0 0 0 0 0 0 0 0 0 0 0 0 0 0 0 0 0 0 0 0 0 0 0 0 0 0 0 0 0 0 0 0 0 0 0 0 0 0 0 0 0 0 0 0 0 0 0 0 0 0 0 0 0 0 0 0 0 0 0 0 0 0 0 0 0 0 0 0 0 0 0 0 0 0 </DataArray>
        <DataArray type="Float64" Name="Deformation" format="ascii" NumberOfComponents="3">0 0 0 -0.0147667014393185 -0.003994104836327242 -0.01065374535603643 0 0 0 -0.01439378247657465 -0.002208566255611498 -0.01184058143218099 0 0 0 -0.008278907294776634 -0.002392132184427701 -0.00914560374485072 0 0 0 -0.0079490756539337 -0.001340898828065639 -0.0102836166811356 -0.02660605079803878 -0.003078833711066925 -0.03353327506294123 -0.02680763122190607 -0.001916218548808867 -0.0345458279057867 -0.01556516131067583 -0.001863245819411943 -0.03263848664104705 -0.0157377554424646 -0.001160908588025675 -0.03363230388117128 0 0 0 -0.01441832166146257 -0.00070113717241417 -0.01236213798263214 0 0 0 -0.007897817408713021 -0.0004295436545322984 -0.01075235024129365 0 0 0 -0.002678895817405553 -0.0008025282797668614 -0.008465144269241604 0 0 0 -0.002569137080683392 -0.0004493679756637038 -0.009592226317303231 -0.03624549647964655 -0.002351767291510536 -0.06757966819495236 -0.03638135428927972 -0.001399819409663959 -0.0683256793683942 -0.02135018609841867 -0.001402765185148779 -0.06681399404902508 -0.02147141238440962 -0.0008359680932130102 -0.06757003116505116 -0.0267636340376048 -0.000643308883258245 -0.0350519436150436 -0.01573520518231326 -0.0003905825038544872 -0.03414124877550564 -0.005111010362129329 -0.0006230868733708982 -0.0321336513499433 -0.005166717617271844 -0.0003896955581551008 -0.0331206185234147 0 0 0 -0.01441832166146652 0.0007011371724224807 -0.01236213798263371 0 0 0 -0.007897817408716673 0.0004295436545430898 -0.01075235024129474 0 0 0 -0.002546311819915411 -0.0001442552396939978 -0.01004595527891604 0 0 0 0.002678895817425549 0.0008025282797828768 -0.00846514426924262 0 0 0 0.002569137080694538 0.0004493679756774327 -0.00959222631730384 -0.04348581680439267 -0.001717487387037667 -0.1096312941628631 -0.04359978182591925 -0.0010330974190498 -0.1101837241482882 -0.02576035548432358 -0.001031937686667729 -0.1090817116675537 -0.02585864565915826 -0.0006193557798122151 -0.1096343077701492 -0.03642299524001252 -0.0004692624070903202 -0.06870347950544879 -0.02152764833679383 -0.0002802314856234844 -0.06794679378228627 -0.007061181630433871 -0.0004682051337531616 -0.06644120659022462 -0.007104394486650374 -0.0002779998892146088 -0.06719971277712028 -0.02676363403761229 0.0006433088832968898 -0.03505194361504532 -0.01573520518232073 0.0003905825038962872 -0.03414124877550705 -0.00516690430100927 -0.0001309054187440194 -0.0336190557656822 0.005111010362167613 0.0006230868734182078 -0.03213365134994424 0.005166717617294512 0.0003896955582010083 -0.03312061852341529 0 0 0 -0.01439378247658667 0.002208566255620849 -0.01184058143218565 0 0 0 -0.007949075653944851 0.001340898828077433 -0.01028361668113876 0 0 0 -0.002546311819919006 0.0001442552397062791 -0.01004595527891664 0 0 0 0.002546311819919079 0.0001442552397067015 -0.01004595527891624 0 0 0 0.008278907294796585 0.002392132184442947 -0.009145603744853898 0 0 0 0.007949075653944931 0.001340898828078672 -0.01028361668113752 -0.04867084322614786 -0.001199436771634202 -0.1575626620473422 -0.04876489886713192 -0.0007204849266931203 -0.1579462398719027 -0.02892602126588857 -0.0007202312728002669 -0.1571753179558858 -0.02900842307921055 -0.0004319499291331886 -0.157561699922916 -0.0436189106142443 -0.0003436102773315523 -0.1104601008166138 -0.02589311549520924 -0.0002057465960926584 -0.1099136420038004 -0.008532998125276125 -0.0003437980545735848 -0.1087954834141527 -0.008566868540059393 -0.0002062953572112878 -0.1093487540728419 -0.03642299524002303 0.0004692624071758833 -0.06870347950545076 -0.02152764833680429 0.000280231485712751 -0.06794679378228792 -0.007128100281772433 -9.333213837084596e-05 -0.06757960147228773 0.007061181630487286 0.0004682051338486264 -0.06644120659022536 0.007104394486682078 0.000277999889308838 -0.0671997127771207 -0.0268076312219287 0.001916218548848245 -0.0345458279057921 -0.01573775544248713 0.00116090858806825 -0.03363230388117559 -0.005166904301016695 0.0001309054187882727 -0.03361905576568324 0.005166904301016823 0.000130905418789131 -0.03361905576568234 0.01556516131071418 0.001863245819458494 -0.0326384866410499 0.01573775544248728 0.001160908588070804 -0.03363230388117298 0 0 0 -0.01476670143933895 0.003994104836338767 -0.01065374535604415 0 0 0 -0.008278907294796157 0.002392132184441702 -0.009145603744855955 0 0 0 -0.002569137080694441 0.0004493679756769998 -0.009592226317305101 0 0 0 0.00254631181991548 -0.0001442552396935956 -0.01004595527891642 0 0 0 0.007897817408716713 0.000429543654544336 -0.01075235024129432 0 0 0 0.01476670143933902 0.003994104836340794 -0.01065374535604212 0 0 0 0.01439378247658637 0.002208566255622898 -0.01184058143218443 -0.05215398730006551 -0.0007708325508286903 -0.2094895324182708 -0.05222965376039621 -0.0004641807013842514 -0.2097362897909271 -0.03107120259291365 -0.0004645653867113956 -0.2092389106594785 -0.03113713508737363 -0.0002784435613284555 -0.2094882047032622 -0.04878171715948773 -0.0002409577451631557 -0.1581402899830534 -0.02903755555504088 -0.0001442549240671807 -0.157756524257973 -0.009599209684173139 -0.0002407203012506707 -0.1569752314749975 -0.009627718588005827 -0.0001440780583249059 -0.1573628908066176 -0.04361891061425726 0.0003436102774773545 -0.1104601008166161 -0.02589311549522211 0.0002057465962428267 -0.1099136420038024 -0.008581347663515029 -6.844517272832843e-05 -0.1096290718556379 0.008532998125341496 0.0003437980547306769 -0.1087954834141533 0.008566868540098291 0.0002062953573674592 -0.1093487540728422 -0.03638135428931132 0.001399819409750032 -0.06832567936839996 -0.02147141238444107 0.0008359680933029093 -0.06757003116505603 -0.007128100281782879 9.333213846326954e-05 -0.06757960147228924 0.007128100281783067 9.333213846452414e-05 -0.067579601472288 0.02135018609847208 0.001402765185243681 -0.06681399404902735 0.02147141238444127 0.0008359680933066948 -0.06757003116505243 -0.02660605079807672 0.003078833711107652 -0.03353327506295009 -0.01556516131071369 0.001863245819455911 -0.03263848664105413 -0.005166717617294338 0.0003896955582001313 -0.03312061852341787 0.005166904301009415 -0.0001309054187431817 -0.03361905576568309 0.01573520518232082 0.0003905825038988262 -0.03414124877550613 0.02660605079807691 0.003078833711111869 -0.03353327506294593 0.02680763122192854 0.001916218548852475 -0.03454582790578944 0 0 0 -0.002678895817425315 0.0008025282797824325 -0.008465144269244733 0 0 0 0.00256913708068343 -0.000449367975663314 -0.009592226317304496 0 0 0 0.007897817408713115 -0.0004295436545310579 -0.01075235024129408 0 0 0 0.01441832166146642 0.0007011371724245761 -0.01236213798263329 -0.05427491422399183 -0.0004379217049870395 -0.2638827642119921 -0.0543316891275902 -0.0002644122147591966 -0.2640225674899471 -0.03239888719824674 -0.0002654352701648316 -0.2637375093142492 -0.03244843168412201 -0.0001587973194090213 -0.2638802544687875 -0.05224321480096568 -0.0001551389573959966 -0.2098616986496491 -0.031160720270938 -9.279669252194578e-05 -0.2096149550234553 -0.01032234171846487 -0.0001552137341737773 -0.2091061367907078 -0.0103451952452901 -9.292750952340563e-05 -0.2093570377178364 -0.04878171715950245 0.0002409577453798387 -0.1581402899830556 -0.02903755555505557 0.0001442549242886534 -0.1577565242579753 -0.009640102535514925 -4.80961197056831e-05 -0.1575583372268428 0.009599209684247838 0.0002407203014796838 -0.156975231474998 0.009627718588050465 0.0001440780585533023 -0.1573628908066182 -0.04359978182595824 0.001033097419196107 -0.110183724148295 -0.02585864565919701 0.0006193557799627989 -0.1096343077701553 -0.008581347663527871 6.844517288237571e-05 -0.1096290718556396 0.00858134766352809 6.844517288402308e-05 -0.109629071855638 0.02576035548438893 0.001031937686824326 -0.1090817116675555 0.02585864565919716 0.0006193557799678822 -0.1096343077701503 -0.03624549647969957 0.002351767291597795 -0.06757966819496265 -0.02135018609847158 0.001402765185239897 -0.06681399404903367 -0.007104394486681873 0.0002779998893076695 -0.0671997127771243 0.007128100281772613 -9.333213836954943e-05 -0.06757960147228904 0.02152764833680447 0.0002802314857165415 -0.06794679378228687 0.03624549647969978 0.002351767291604244 -0.06757966819495619 0.03638135428931123 0.001399819409756445 -0.0683256793683964 -0.00511101036216732 0.0006230868734173115 -0.03213365134994844 0.005166717617271942 -0.0003896955581542921 -0.03312061852341724 0.01573520518231342 -0.0003905825038519625 -0.03414124877550646 0.0267636340376123 0.0006433088833011086 -0.03505194361504447 0 0 0 0.002678895817405471 -0.0008025282797664827 -0.008465144269243722 0 0 0 0.007949075653933754 -0.001340898828064423 -0.01028361668113685 0 0 0 0.01441832166146278 -0.0007011371724120801 -0.01236213798263257 -0.05537429214756154 -0.0001999317838267361 -0.3195494221475041 -0.05541158234075377 -0.0001220660943891007 -0.3196128680612983 -0.03311452806361787 -0.0001235155994576393 -0.319479220169927 -0.03314707523854271 -7.359887116436188e-05 -0.3195459780918389 -0.0543417924348271 -8.867574708068155e-05 -0.2640948819705675 -0.0324660216922023 -5.294356961933795e-05 -0.2639537729033247 -0.01077363137692402 -8.899770471377685e-05 -0.2636575998692476 -0.0107907709042853 -5.313157790996224e-05 -0.2638022197465118 -0.05224321480098165 0.0001551389576921447 -0.2098616986496515 -0.03116072027095389 9.279669282299957e-05 -0.2096149550234576 -0.0103551546376775 -3.092549082218337e-05 -0.2094844336885729 0.01032234171854631 0.0001552137344822995 -0.2091061367907082 0.01034519524533889 9.292750983146199e-05 -0.2093570377178364 -0.04876489886717624 0.0007204849269099463 -0.1579462398719102 -0.02900842307925472 0.000431949929355264 -0.1575616999229231 -0.009640102535529625 4.809611993152444e-05 -0.1575583372268453 0.009640102535529977 4.809611993375397e-05 -0.1575583372268428 0.02892602126596324 0.0007202312730290191 -0.157175317955888 0.02900842307925507 0.0004319499293612212 -0.1575616999229175 -0.04348581680445795 0.001717487387184888 -0.1096312941628743 -0.02576035548438846 0.001031937686819231 -0.1090817116675637 -0.00856686854009811 0.0002062953573657761 -0.1093487540728472 0.008581347663515265 -6.844517272667735e-05 -0.1096290718556396 0.0258931154952223 0.0002057465962478636 -0.1099136420038007 0.04348581680445814 0.001717487387193329 -0.1096312941628661 0.04359978182595827 0.001033097419204537 -0.11018372414829 -0.007061181630486992 0.0004682051338474523 -0.06644120659023162 0.007104394486650529 -0.0002779998892133073 -0.06719971277712394 0.0215276483367941 -0.0002802314856196936 -0.06794679378228764 0.03642299524002312 0.0004692624071821896 -0.06870347950544967 0.005111010362129315 -0.0006230868733701063 -0.03213365134994752 0.01573775544246474 -0.001160908588023165 -0.03363230388117382 0.02676363